#Lab_6
# ================================
import pandas as pd
import numpy as np
import matplotlib.pyplot as plt
import seaborn as sns

from sklearn.model_selection import train_test_split
from sklearn.linear_model import LinearRegression
from sklearn.metrics import mean_absolute_error, mean_squared_error

print("========== Ecommerce Customers ==========")

# Load data
ecom = pd.read_csv("Ecommerce Customers")

# Explore
print(ecom.info())
print(ecom.describe())

# Visualization
sns.pairplot(ecom)
plt.show()

# Features & Target
X1 = ecom[['Avg. Session Length', 'Time on App', 'Time on Website', 'Length of Membership']]
y1 = ecom['Yearly Amount Spent']

# Train-Test Split
X1_train, X1_test, y1_train, y1_test = train_test_split(X1, y1, test_size=0.3, random_state=101)

# Model
model1 = LinearRegression()
model1.fit(X1_train, y1_train)

# Predictions
pred1 = model1.predict(X1_test)

# Evaluation
print("\n--- Ecommerce Model Evaluation ---")
print("MAE:", mean_absolute_error(y1_test, pred1))
print("MSE:", mean_squared_error(y1_test, pred1))
print("RMSE:", np.sqrt(mean_squared_error(y1_test, pred1)))

# Plot
plt.figure()
plt.scatter(y1_test, pred1)
plt.xlabel("Actual")
plt.ylabel("Predicted")
plt.title("Ecommerce Predictions")
plt.show()

print("\n========== USA Housing ==========")

# Load data
housing = pd.read_csv("USA_Housing.csv")

# Explore
print(housing.info())
print(housing.describe())

# Features & Target
X2 = housing[['Avg. Area Income', 'Avg. Area House Age', 'Avg. Area Number of Rooms',
              'Avg. Area Number of Bedrooms', 'Area Population']]
y2 = housing['Price']

# Train-Test Split
X2_train, X2_test, y2_train, y2_test = train_test_split(X2, y2, test_size=0.4, random_state=101)

# Model
model2 = LinearRegression()
model2.fit(X2_train, y2_train)

# Predictions
pred2 = model2.predict(X2_test)

# Evaluation
print("\n--- Housing Model Evaluation ---")
print("MAE:", mean_absolute_error(y2_test, pred2))
print("MSE:", mean_squared_error(y2_test, pred2))
print("RMSE:", np.sqrt(mean_squared_error(y2_test, pred2)))

# Plot Predictions
plt.figure()
plt.scatter(y2_test, pred2)
plt.xlabel("Actual Price")
plt.ylabel("Predicted Price")
plt.title("Housing Predictions")
plt.show()

# Residuals Plot
plt.figure()
sns.histplot((y2_test - pred2), bins=50)
plt.title("Residuals Distribution")
plt.show()
